+ 0.033 0 1 video 1052 ------- 0 0.0 3.0 -1 0
- 0.033 0 1 video 1052 ------- 0 0.0 3.0 -1 0
+ 0.033 0 1 video 1052 ------- 0 0.0 3.0 -1 1
+ 0.033 0 1 video 1052 ------- 0 0.0 3.0 -1 2
+ 0.033 0 1 video 1052 ------- 0 0.0 3.0 -1 3
+ 0.033 0 1 video 1052 ------- 0 0.0 3.0 -1 4
+ 0.033 0 1 video 1052 ------- 0 0.0 3.0 -1 5
+ 0.033 0 1 video 1052 ------- 0 0.0 3.0 -1 6
+ 0.033 0 1 video 1052 ------- 0 0.0 3.0 -1 7
+ 0.033 0 1 video 1052 ------- 0 0.0 3.0 -1 8
+ 0.033 0 1 video 1052 ------- 0 0.0 3.0 -1 9
+ 0.033 0 1 video 1052 ------- 0 0.0 3.0 -1 10
+ 0.033 0 1 video 637 ------- 0 0.0 3.0 -1 11
- 0.033842 0 1 video 1052 ------- 0 0.0 3.0 -1 1
- 0.034683 0 1 video 1052 ------- 0 0.0 3.0 -1 2
r 0.034842 0 1 video 1052 ------- 0 0.0 3.0 -1 0
+ 0.034842 1 2 video 1052 ------- 0 0.0 3.0 -1 0
- 0.034842 1 2 video 1052 ------- 0 0.0 3.0 -1 0
- 0.035525 0 1 video 1052 ------- 0 0.0 3.0 -1 3
r 0.035683 0 1 video 1052 ------- 0 0.0 3.0 -1 1
+ 0.035683 1 2 video 1052 ------- 0 0.0 3.0 -1 1
- 0.036366 0 1 video 1052 ------- 0 0.0 3.0 -1 4
r 0.036525 0 1 video 1052 ------- 0 0.0 3.0 -1 2
+ 0.036525 1 2 video 1052 ------- 0 0.0 3.0 -1 2
- 0.037208 0 1 video 1052 ------- 0 0.0 3.0 -1 5
r 0.037366 0 1 video 1052 ------- 0 0.0 3.0 -1 3
+ 0.037366 1 2 video 1052 ------- 0 0.0 3.0 -1 3
- 0.03805 0 1 video 1052 ------- 0 0.0 3.0 -1 6
r 0.038208 0 1 video 1052 ------- 0 0.0 3.0 -1 4
+ 0.038208 1 2 video 1052 ------- 0 0.0 3.0 -1 4
- 0.038891 0 1 video 1052 ------- 0 0.0 3.0 -1 7
r 0.03905 0 1 video 1052 ------- 0 0.0 3.0 -1 5
+ 0.03905 1 2 video 1052 ------- 0 0.0 3.0 -1 5
- 0.039733 0 1 video 1052 ------- 0 0.0 3.0 -1 8
r 0.039891 0 1 video 1052 ------- 0 0.0 3.0 -1 6
+ 0.039891 1 2 video 1052 ------- 0 0.0 3.0 -1 6
- 0.040574 0 1 video 1052 ------- 0 0.0 3.0 -1 9
r 0.040733 0 1 video 1052 ------- 0 0.0 3.0 -1 7
+ 0.040733 1 2 video 1052 ------- 0 0.0 3.0 -1 7
- 0.041416 0 1 video 1052 ------- 0 0.0 3.0 -1 10
r 0.041574 0 1 video 1052 ------- 0 0.0 3.0 -1 8
+ 0.041574 1 2 video 1052 ------- 0 0.0 3.0 -1 8
- 0.042258 0 1 video 637 ------- 0 0.0 3.0 -1 11
r 0.042416 0 1 video 1052 ------- 0 0.0 3.0 -1 9
+ 0.042416 1 2 video 1052 ------- 0 0.0 3.0 -1 9
r 0.043258 0 1 video 1052 ------- 0 0.0 3.0 -1 10
+ 0.043258 1 2 video 1052 ------- 0 0.0 3.0 -1 10
r 0.043767 0 1 video 637 ------- 0 0.0 3.0 -1 11
+ 0.043767 1 2 video 637 ------- 0 0.0 3.0 -1 11
- 0.047992 1 2 video 1052 ------- 0 0.0 3.0 -1 1
r 0.048992 1 2 video 1052 ------- 0 0.0 3.0 -1 0
+ 0.048992 2 3 video 1052 ------- 0 0.0 3.0 -1 0
- 0.048992 2 3 video 1052 ------- 0 0.0 3.0 -1 0
r 0.050833 2 3 video 1052 ------- 0 0.0 3.0 -1 0
- 0.061142 1 2 video 1052 ------- 0 0.0 3.0 -1 2
r 0.062142 1 2 video 1052 ------- 0 0.0 3.0 -1 1
+ 0.062142 2 3 video 1052 ------- 0 0.0 3.0 -1 1
- 0.062142 2 3 video 1052 ------- 0 0.0 3.0 -1 1
r 0.063983 2 3 video 1052 ------- 0 0.0 3.0 -1 1
- 0.074292 1 2 video 1052 ------- 0 0.0 3.0 -1 3
r 0.075292 1 2 video 1052 ------- 0 0.0 3.0 -1 2
+ 0.075292 2 3 video 1052 ------- 0 0.0 3.0 -1 2
- 0.075292 2 3 video 1052 ------- 0 0.0 3.0 -1 2
r 0.077133 2 3 video 1052 ------- 0 0.0 3.0 -1 2
- 0.087442 1 2 video 1052 ------- 0 0.0 3.0 -1 4
r 0.088442 1 2 video 1052 ------- 0 0.0 3.0 -1 3
+ 0.088442 2 3 video 1052 ------- 0 0.0 3.0 -1 3
- 0.088442 2 3 video 1052 ------- 0 0.0 3.0 -1 3
r 0.090283 2 3 video 1052 ------- 0 0.0 3.0 -1 3
- 0.100592 1 2 video 1052 ------- 0 0.0 3.0 -1 5
r 0.101592 1 2 video 1052 ------- 0 0.0 3.0 -1 4
+ 0.101592 2 3 video 1052 ------- 0 0.0 3.0 -1 4
- 0.101592 2 3 video 1052 ------- 0 0.0 3.0 -1 4
r 0.103433 2 3 video 1052 ------- 0 0.0 3.0 -1 4
- 0.113742 1 2 video 1052 ------- 0 0.0 3.0 -1 6
r 0.114742 1 2 video 1052 ------- 0 0.0 3.0 -1 5
+ 0.114742 2 3 video 1052 ------- 0 0.0 3.0 -1 5
- 0.114742 2 3 video 1052 ------- 0 0.0 3.0 -1 5
r 0.116583 2 3 video 1052 ------- 0 0.0 3.0 -1 5
- 0.126892 1 2 video 1052 ------- 0 0.0 3.0 -1 7
r 0.127892 1 2 video 1052 ------- 0 0.0 3.0 -1 6
+ 0.127892 2 3 video 1052 ------- 0 0.0 3.0 -1 6
- 0.127892 2 3 video 1052 ------- 0 0.0 3.0 -1 6
r 0.129733 2 3 video 1052 ------- 0 0.0 3.0 -1 6
+ 0.133 0 1 video 334 ------- 0 0.0 3.0 -1 12
- 0.133 0 1 video 334 ------- 0 0.0 3.0 -1 12
+ 0.133 0 1 video 267 ------- 0 0.0 3.0 -1 13
+ 0.133 0 1 video 170 ------- 0 0.0 3.0 -1 14
- 0.133267 0 1 video 267 ------- 0 0.0 3.0 -1 13
- 0.133481 0 1 video 170 ------- 0 0.0 3.0 -1 14
r 0.134267 0 1 video 334 ------- 0 0.0 3.0 -1 12
+ 0.134267 1 2 video 334 ------- 0 0.0 3.0 -1 12
r 0.134481 0 1 video 267 ------- 0 0.0 3.0 -1 13
+ 0.134481 1 2 video 267 ------- 0 0.0 3.0 -1 13
r 0.134617 0 1 video 170 ------- 0 0.0 3.0 -1 14
+ 0.134617 1 2 video 170 ------- 0 0.0 3.0 -1 14
- 0.140042 1 2 video 1052 ------- 0 0.0 3.0 -1 8
r 0.141042 1 2 video 1052 ------- 0 0.0 3.0 -1 7
+ 0.141042 2 3 video 1052 ------- 0 0.0 3.0 -1 7
- 0.141042 2 3 video 1052 ------- 0 0.0 3.0 -1 7
r 0.142883 2 3 video 1052 ------- 0 0.0 3.0 -1 7
- 0.153192 1 2 video 1052 ------- 0 0.0 3.0 -1 9
r 0.154192 1 2 video 1052 ------- 0 0.0 3.0 -1 8
+ 0.154192 2 3 video 1052 ------- 0 0.0 3.0 -1 8
- 0.154192 2 3 video 1052 ------- 0 0.0 3.0 -1 8
r 0.156033 2 3 video 1052 ------- 0 0.0 3.0 -1 8
- 0.166342 1 2 video 1052 ------- 0 0.0 3.0 -1 10
r 0.167342 1 2 video 1052 ------- 0 0.0 3.0 -1 9
+ 0.167342 2 3 video 1052 ------- 0 0.0 3.0 -1 9
- 0.167342 2 3 video 1052 ------- 0 0.0 3.0 -1 9
r 0.169183 2 3 video 1052 ------- 0 0.0 3.0 -1 9
- 0.179492 1 2 video 637 ------- 0 0.0 3.0 -1 11
r 0.180492 1 2 video 1052 ------- 0 0.0 3.0 -1 10
+ 0.180492 2 3 video 1052 ------- 0 0.0 3.0 -1 10
- 0.180492 2 3 video 1052 ------- 0 0.0 3.0 -1 10
r 0.182333 2 3 video 1052 ------- 0 0.0 3.0 -1 10
- 0.187454 1 2 video 334 ------- 0 0.0 3.0 -1 12
r 0.188454 1 2 video 637 ------- 0 0.0 3.0 -1 11
+ 0.188454 2 3 video 637 ------- 0 0.0 3.0 -1 11
- 0.188454 2 3 video 637 ------- 0 0.0 3.0 -1 11
r 0.189964 2 3 video 637 ------- 0 0.0 3.0 -1 11
- 0.191629 1 2 video 267 ------- 0 0.0 3.0 -1 13
r 0.192629 1 2 video 334 ------- 0 0.0 3.0 -1 12
+ 0.192629 2 3 video 334 ------- 0 0.0 3.0 -1 12
- 0.192629 2 3 video 334 ------- 0 0.0 3.0 -1 12
r 0.193896 2 3 video 334 ------- 0 0.0 3.0 -1 12
- 0.194967 1 2 video 170 ------- 0 0.0 3.0 -1 14
r 0.195967 1 2 video 267 ------- 0 0.0 3.0 -1 13
+ 0.195967 2 3 video 267 ------- 0 0.0 3.0 -1 13
- 0.195967 2 3 video 267 ------- 0 0.0 3.0 -1 13
r 0.19718 2 3 video 267 ------- 0 0.0 3.0 -1 13
r 0.198092 1 2 video 170 ------- 0 0.0 3.0 -1 14
+ 0.198092 2 3 video 170 ------- 0 0.0 3.0 -1 14
- 0.198092 2 3 video 170 ------- 0 0.0 3.0 -1 14
r 0.199228 2 3 video 170 ------- 0 0.0 3.0 -1 14
+ 0.231 0 1 video 278 ------- 0 0.0 3.0 -1 15
- 0.231 0 1 video 278 ------- 0 0.0 3.0 -1 15
+ 0.231 0 1 video 129 ------- 0 0.0 3.0 -1 16
+ 0.231 0 1 video 120 ------- 0 0.0 3.0 -1 17
- 0.231222 0 1 video 129 ------- 0 0.0 3.0 -1 16
- 0.231326 0 1 video 120 ------- 0 0.0 3.0 -1 17
r 0.232222 0 1 video 278 ------- 0 0.0 3.0 -1 15
+ 0.232222 1 2 video 278 ------- 0 0.0 3.0 -1 15
- 0.232222 1 2 video 278 ------- 0 0.0 3.0 -1 15
r 0.232326 0 1 video 129 ------- 0 0.0 3.0 -1 16
+ 0.232326 1 2 video 129 ------- 0 0.0 3.0 -1 16
r 0.232422 0 1 video 120 ------- 0 0.0 3.0 -1 17
+ 0.232422 1 2 video 120 ------- 0 0.0 3.0 -1 17
- 0.235697 1 2 video 129 ------- 0 0.0 3.0 -1 16
r 0.236697 1 2 video 278 ------- 0 0.0 3.0 -1 15
+ 0.236697 2 3 video 278 ------- 0 0.0 3.0 -1 15
- 0.236697 2 3 video 278 ------- 0 0.0 3.0 -1 15
- 0.23731 1 2 video 120 ------- 0 0.0 3.0 -1 17
r 0.23792 2 3 video 278 ------- 0 0.0 3.0 -1 15
r 0.23831 1 2 video 129 ------- 0 0.0 3.0 -1 16
+ 0.23831 2 3 video 129 ------- 0 0.0 3.0 -1 16
- 0.23831 2 3 video 129 ------- 0 0.0 3.0 -1 16
r 0.239413 2 3 video 129 ------- 0 0.0 3.0 -1 16
r 0.23981 1 2 video 120 ------- 0 0.0 3.0 -1 17
+ 0.23981 2 3 video 120 ------- 0 0.0 3.0 -1 17
- 0.23981 2 3 video 120 ------- 0 0.0 3.0 -1 17
r 0.240906 2 3 video 120 ------- 0 0.0 3.0 -1 17
+ 0.331 0 1 video 231 ------- 0 0.0 3.0 -1 18
- 0.331 0 1 video 231 ------- 0 0.0 3.0 -1 18
+ 0.331 0 1 video 129 ------- 0 0.0 3.0 -1 19
+ 0.331 0 1 video 117 ------- 0 0.0 3.0 -1 20
- 0.331185 0 1 video 129 ------- 0 0.0 3.0 -1 19
- 0.331288 0 1 video 117 ------- 0 0.0 3.0 -1 20
r 0.332185 0 1 video 231 ------- 0 0.0 3.0 -1 18
+ 0.332185 1 2 video 231 ------- 0 0.0 3.0 -1 18
- 0.332185 1 2 video 231 ------- 0 0.0 3.0 -1 18
r 0.332288 0 1 video 129 ------- 0 0.0 3.0 -1 19
+ 0.332288 1 2 video 129 ------- 0 0.0 3.0 -1 19
r 0.332382 0 1 video 117 ------- 0 0.0 3.0 -1 20
+ 0.332382 1 2 video 117 ------- 0 0.0 3.0 -1 20
- 0.335072 1 2 video 129 ------- 0 0.0 3.0 -1 19
r 0.336072 1 2 video 231 ------- 0 0.0 3.0 -1 18
+ 0.336072 2 3 video 231 ------- 0 0.0 3.0 -1 18
- 0.336072 2 3 video 231 ------- 0 0.0 3.0 -1 18
- 0.336685 1 2 video 117 ------- 0 0.0 3.0 -1 20
r 0.337257 2 3 video 231 ------- 0 0.0 3.0 -1 18
r 0.337685 1 2 video 129 ------- 0 0.0 3.0 -1 19
+ 0.337685 2 3 video 129 ------- 0 0.0 3.0 -1 19
- 0.337685 2 3 video 129 ------- 0 0.0 3.0 -1 19
r 0.338788 2 3 video 129 ------- 0 0.0 3.0 -1 19
r 0.339147 1 2 video 117 ------- 0 0.0 3.0 -1 20
+ 0.339147 2 3 video 117 ------- 0 0.0 3.0 -1 20
- 0.339147 2 3 video 117 ------- 0 0.0 3.0 -1 20
r 0.340241 2 3 video 117 ------- 0 0.0 3.0 -1 20
+ 0.429999 0 1 video 196 ------- 0 0.0 3.0 -1 21
- 0.429999 0 1 video 196 ------- 0 0.0 3.0 -1 21
+ 0.429999 0 1 video 107 ------- 0 0.0 3.0 -1 22
+ 0.429999 0 1 video 105 ------- 0 0.0 3.0 -1 23
- 0.430156 0 1 video 107 ------- 0 0.0 3.0 -1 22
- 0.430241 0 1 video 105 ------- 0 0.0 3.0 -1 23
r 0.431156 0 1 video 196 ------- 0 0.0 3.0 -1 21
+ 0.431156 1 2 video 196 ------- 0 0.0 3.0 -1 21
- 0.431156 1 2 video 196 ------- 0 0.0 3.0 -1 21
r 0.431241 0 1 video 107 ------- 0 0.0 3.0 -1 22
+ 0.431241 1 2 video 107 ------- 0 0.0 3.0 -1 22
r 0.431325 0 1 video 105 ------- 0 0.0 3.0 -1 23
+ 0.431325 1 2 video 105 ------- 0 0.0 3.0 -1 23
- 0.433606 1 2 video 107 ------- 0 0.0 3.0 -1 22
r 0.434606 1 2 video 196 ------- 0 0.0 3.0 -1 21
+ 0.434606 2 3 video 196 ------- 0 0.0 3.0 -1 21
- 0.434606 2 3 video 196 ------- 0 0.0 3.0 -1 21
- 0.434943 1 2 video 105 ------- 0 0.0 3.0 -1 23
r 0.435763 2 3 video 196 ------- 0 0.0 3.0 -1 21
r 0.435943 1 2 video 107 ------- 0 0.0 3.0 -1 22
+ 0.435943 2 3 video 107 ------- 0 0.0 3.0 -1 22
- 0.435943 2 3 video 107 ------- 0 0.0 3.0 -1 22
r 0.437029 2 3 video 107 ------- 0 0.0 3.0 -1 22
r 0.437256 1 2 video 105 ------- 0 0.0 3.0 -1 23
+ 0.437256 2 3 video 105 ------- 0 0.0 3.0 -1 23
- 0.437256 2 3 video 105 ------- 0 0.0 3.0 -1 23
r 0.43834 2 3 video 105 ------- 0 0.0 3.0 -1 23
+ 0.527999 0 1 video 199 ------- 0 0.0 3.0 -1 24
- 0.527999 0 1 video 199 ------- 0 0.0 3.0 -1 24
+ 0.528999 0 1 video 84 ------- 0 0.0 3.0 -1 25
- 0.528999 0 1 video 84 ------- 0 0.0 3.0 -1 25
+ 0.528999 0 1 video 86 ------- 0 0.0 3.0 -1 26
- 0.529066 0 1 video 86 ------- 0 0.0 3.0 -1 26
r 0.529158 0 1 video 199 ------- 0 0.0 3.0 -1 24
+ 0.529158 1 2 video 199 ------- 0 0.0 3.0 -1 24
- 0.529158 1 2 video 199 ------- 0 0.0 3.0 -1 24
r 0.530066 0 1 video 84 ------- 0 0.0 3.0 -1 25
+ 0.530066 1 2 video 84 ------- 0 0.0 3.0 -1 25
r 0.530135 0 1 video 86 ------- 0 0.0 3.0 -1 26
+ 0.530135 1 2 video 86 ------- 0 0.0 3.0 -1 26
- 0.531646 1 2 video 84 ------- 0 0.0 3.0 -1 25
r 0.532646 1 2 video 199 ------- 0 0.0 3.0 -1 24
+ 0.532646 2 3 video 199 ------- 0 0.0 3.0 -1 24
- 0.532646 2 3 video 199 ------- 0 0.0 3.0 -1 24
- 0.532696 1 2 video 86 ------- 0 0.0 3.0 -1 26
r 0.533696 1 2 video 84 ------- 0 0.0 3.0 -1 25
+ 0.533696 2 3 video 84 ------- 0 0.0 3.0 -1 25
- 0.533696 2 3 video 84 ------- 0 0.0 3.0 -1 25
r 0.533805 2 3 video 199 ------- 0 0.0 3.0 -1 24
r 0.534763 2 3 video 84 ------- 0 0.0 3.0 -1 25
r 0.534771 1 2 video 86 ------- 0 0.0 3.0 -1 26
+ 0.534771 2 3 video 86 ------- 0 0.0 3.0 -1 26
- 0.534771 2 3 video 86 ------- 0 0.0 3.0 -1 26
r 0.53584 2 3 video 86 ------- 0 0.0 3.0 -1 26
+ 0.627998 0 1 video 191 ------- 0 0.0 3.0 -1 27
- 0.627998 0 1 video 191 ------- 0 0.0 3.0 -1 27
+ 0.627998 0 1 video 80 ------- 0 0.0 3.0 -1 28
+ 0.627998 0 1 video 83 ------- 0 0.0 3.0 -1 29
- 0.628151 0 1 video 80 ------- 0 0.0 3.0 -1 28
- 0.628215 0 1 video 83 ------- 0 0.0 3.0 -1 29
r 0.629151 0 1 video 191 ------- 0 0.0 3.0 -1 27
+ 0.629151 1 2 video 191 ------- 0 0.0 3.0 -1 27
- 0.629151 1 2 video 191 ------- 0 0.0 3.0 -1 27
r 0.629215 0 1 video 80 ------- 0 0.0 3.0 -1 28
+ 0.629215 1 2 video 80 ------- 0 0.0 3.0 -1 28
r 0.629281 0 1 video 83 ------- 0 0.0 3.0 -1 29
+ 0.629281 1 2 video 83 ------- 0 0.0 3.0 -1 29
- 0.631538 1 2 video 80 ------- 0 0.0 3.0 -1 28
r 0.632538 1 2 video 191 ------- 0 0.0 3.0 -1 27
+ 0.632538 2 3 video 191 ------- 0 0.0 3.0 -1 27
- 0.632538 2 3 video 191 ------- 0 0.0 3.0 -1 27
- 0.632538 1 2 video 83 ------- 0 0.0 3.0 -1 29
r 0.633538 1 2 video 80 ------- 0 0.0 3.0 -1 28
+ 0.633538 2 3 video 80 ------- 0 0.0 3.0 -1 28
- 0.633538 2 3 video 80 ------- 0 0.0 3.0 -1 28
r 0.633691 2 3 video 191 ------- 0 0.0 3.0 -1 27
r 0.634576 1 2 video 83 ------- 0 0.0 3.0 -1 29
+ 0.634576 2 3 video 83 ------- 0 0.0 3.0 -1 29
- 0.634576 2 3 video 83 ------- 0 0.0 3.0 -1 29
r 0.634602 2 3 video 80 ------- 0 0.0 3.0 -1 28
r 0.635642 2 3 video 83 ------- 0 0.0 3.0 -1 29
+ 0.726997 0 1 video 193 ------- 0 0.0 3.0 -1 30
- 0.726997 0 1 video 193 ------- 0 0.0 3.0 -1 30
+ 0.726997 0 1 video 81 ------- 0 0.0 3.0 -1 31
+ 0.726997 0 1 video 80 ------- 0 0.0 3.0 -1 32
- 0.727151 0 1 video 81 ------- 0 0.0 3.0 -1 31
- 0.727216 0 1 video 80 ------- 0 0.0 3.0 -1 32
r 0.728151 0 1 video 193 ------- 0 0.0 3.0 -1 30
+ 0.728151 1 2 video 193 ------- 0 0.0 3.0 -1 30
- 0.728151 1 2 video 193 ------- 0 0.0 3.0 -1 30
r 0.728216 0 1 video 81 ------- 0 0.0 3.0 -1 31
+ 0.728216 1 2 video 81 ------- 0 0.0 3.0 -1 31
r 0.72828 0 1 video 80 ------- 0 0.0 3.0 -1 32
+ 0.72828 1 2 video 80 ------- 0 0.0 3.0 -1 32
- 0.730564 1 2 video 81 ------- 0 0.0 3.0 -1 31
r 0.731564 1 2 video 193 ------- 0 0.0 3.0 -1 30
+ 0.731564 2 3 video 193 ------- 0 0.0 3.0 -1 30
- 0.731564 2 3 video 193 ------- 0 0.0 3.0 -1 30
- 0.731576 1 2 video 80 ------- 0 0.0 3.0 -1 32
r 0.732576 1 2 video 81 ------- 0 0.0 3.0 -1 31
+ 0.732576 2 3 video 81 ------- 0 0.0 3.0 -1 31
- 0.732576 2 3 video 81 ------- 0 0.0 3.0 -1 31
r 0.732718 2 3 video 193 ------- 0 0.0 3.0 -1 30
r 0.733576 1 2 video 80 ------- 0 0.0 3.0 -1 32
+ 0.733576 2 3 video 80 ------- 0 0.0 3.0 -1 32
- 0.733576 2 3 video 80 ------- 0 0.0 3.0 -1 32
r 0.733641 2 3 video 81 ------- 0 0.0 3.0 -1 31
r 0.73464 2 3 video 80 ------- 0 0.0 3.0 -1 32
+ 0.824996 0 1 video 243 ------- 0 0.0 3.0 -1 33
- 0.824996 0 1 video 243 ------- 0 0.0 3.0 -1 33
+ 0.824996 0 1 video 103 ------- 0 0.0 3.0 -1 34
+ 0.824996 0 1 video 103 ------- 0 0.0 3.0 -1 35
- 0.82519 0 1 video 103 ------- 0 0.0 3.0 -1 34
- 0.825273 0 1 video 103 ------- 0 0.0 3.0 -1 35
r 0.82619 0 1 video 243 ------- 0 0.0 3.0 -1 33
+ 0.82619 1 2 video 243 ------- 0 0.0 3.0 -1 33
- 0.82619 1 2 video 243 ------- 0 0.0 3.0 -1 33
r 0.826273 0 1 video 103 ------- 0 0.0 3.0 -1 34
+ 0.826273 1 2 video 103 ------- 0 0.0 3.0 -1 34
r 0.826355 0 1 video 103 ------- 0 0.0 3.0 -1 35
+ 0.826355 1 2 video 103 ------- 0 0.0 3.0 -1 35
- 0.829228 1 2 video 103 ------- 0 0.0 3.0 -1 34
r 0.830228 1 2 video 243 ------- 0 0.0 3.0 -1 33
+ 0.830228 2 3 video 243 ------- 0 0.0 3.0 -1 33
- 0.830228 2 3 video 243 ------- 0 0.0 3.0 -1 33
- 0.830515 1 2 video 103 ------- 0 0.0 3.0 -1 35
r 0.831422 2 3 video 243 ------- 0 0.0 3.0 -1 33
r 0.831515 1 2 video 103 ------- 0 0.0 3.0 -1 34
+ 0.831515 2 3 video 103 ------- 0 0.0 3.0 -1 34
- 0.831515 2 3 video 103 ------- 0 0.0 3.0 -1 34
r 0.832598 2 3 video 103 ------- 0 0.0 3.0 -1 34
r 0.832803 1 2 video 103 ------- 0 0.0 3.0 -1 35
+ 0.832803 2 3 video 103 ------- 0 0.0 3.0 -1 35
- 0.832803 2 3 video 103 ------- 0 0.0 3.0 -1 35
r 0.833885 2 3 video 103 ------- 0 0.0 3.0 -1 35
+ 0.924996 0 1 video 351 ------- 0 0.0 3.0 -1 36
- 0.924996 0 1 video 351 ------- 0 0.0 3.0 -1 36
+ 0.924996 0 1 video 121 ------- 0 0.0 3.0 -1 37
+ 0.924996 0 1 video 115 ------- 0 0.0 3.0 -1 38
- 0.925277 0 1 video 121 ------- 0 0.0 3.0 -1 37
- 0.925374 0 1 video 115 ------- 0 0.0 3.0 -1 38
r 0.926277 0 1 video 351 ------- 0 0.0 3.0 -1 36
+ 0.926277 1 2 video 351 ------- 0 0.0 3.0 -1 36
- 0.926277 1 2 video 351 ------- 0 0.0 3.0 -1 36
r 0.926374 0 1 video 121 ------- 0 0.0 3.0 -1 37
+ 0.926374 1 2 video 121 ------- 0 0.0 3.0 -1 37
r 0.926466 0 1 video 115 ------- 0 0.0 3.0 -1 38
+ 0.926466 1 2 video 115 ------- 0 0.0 3.0 -1 38
- 0.930664 1 2 video 121 ------- 0 0.0 3.0 -1 37
r 0.931664 1 2 video 351 ------- 0 0.0 3.0 -1 36
+ 0.931664 2 3 video 351 ------- 0 0.0 3.0 -1 36
- 0.931664 2 3 video 351 ------- 0 0.0 3.0 -1 36
- 0.932177 1 2 video 115 ------- 0 0.0 3.0 -1 38
r 0.932945 2 3 video 351 ------- 0 0.0 3.0 -1 36
r 0.933177 1 2 video 121 ------- 0 0.0 3.0 -1 37
+ 0.933177 2 3 video 121 ------- 0 0.0 3.0 -1 37
- 0.933177 2 3 video 121 ------- 0 0.0 3.0 -1 37
r 0.934274 2 3 video 121 ------- 0 0.0 3.0 -1 37
r 0.934614 1 2 video 115 ------- 0 0.0 3.0 -1 38
+ 0.934614 2 3 video 115 ------- 0 0.0 3.0 -1 38
- 0.934614 2 3 video 115 ------- 0 0.0 3.0 -1 38
r 0.935706 2 3 video 115 ------- 0 0.0 3.0 -1 38
+ 1.023995 0 1 video 1052 ------- 0 0.0 3.0 -1 39
- 1.023995 0 1 video 1052 ------- 0 0.0 3.0 -1 39
+ 1.023995 0 1 video 1052 ------- 0 0.0 3.0 -1 40
+ 1.023995 0 1 video 123 ------- 0 0.0 3.0 -1 41
+ 1.023995 0 1 video 315 ------- 0 0.0 3.0 -1 42
+ 1.023995 0 1 video 308 ------- 0 0.0 3.0 -1 43
- 1.024837 0 1 video 1052 ------- 0 0.0 3.0 -1 40
- 1.025678 0 1 video 123 ------- 0 0.0 3.0 -1 41
- 1.025777 0 1 video 315 ------- 0 0.0 3.0 -1 42
r 1.025837 0 1 video 1052 ------- 0 0.0 3.0 -1 39
+ 1.025837 1 2 video 1052 ------- 0 0.0 3.0 -1 39
- 1.025837 1 2 video 1052 ------- 0 0.0 3.0 -1 39
- 1.026029 0 1 video 308 ------- 0 0.0 3.0 -1 43
r 1.026678 0 1 video 1052 ------- 0 0.0 3.0 -1 40
+ 1.026678 1 2 video 1052 ------- 0 0.0 3.0 -1 40
r 1.026777 0 1 video 123 ------- 0 0.0 3.0 -1 41
+ 1.026777 1 2 video 123 ------- 0 0.0 3.0 -1 41
r 1.027029 0 1 video 315 ------- 0 0.0 3.0 -1 42
+ 1.027029 1 2 video 315 ------- 0 0.0 3.0 -1 42
r 1.027275 0 1 video 308 ------- 0 0.0 3.0 -1 43
+ 1.027275 1 2 video 308 ------- 0 0.0 3.0 -1 43
- 1.038987 1 2 video 1052 ------- 0 0.0 3.0 -1 40
r 1.039987 1 2 video 1052 ------- 0 0.0 3.0 -1 39
+ 1.039987 2 3 video 1052 ------- 0 0.0 3.0 -1 39
- 1.039987 2 3 video 1052 ------- 0 0.0 3.0 -1 39
r 1.041828 2 3 video 1052 ------- 0 0.0 3.0 -1 39
- 1.052137 1 2 video 123 ------- 0 0.0 3.0 -1 41
r 1.053137 1 2 video 1052 ------- 0 0.0 3.0 -1 40
+ 1.053137 2 3 video 1052 ------- 0 0.0 3.0 -1 40
- 1.053137 2 3 video 1052 ------- 0 0.0 3.0 -1 40
- 1.053674 1 2 video 315 ------- 0 0.0 3.0 -1 42
r 1.054674 1 2 video 123 ------- 0 0.0 3.0 -1 41
+ 1.054674 2 3 video 123 ------- 0 0.0 3.0 -1 41
- 1.054674 2 3 video 123 ------- 0 0.0 3.0 -1 41
r 1.054978 2 3 video 1052 ------- 0 0.0 3.0 -1 40
r 1.055773 2 3 video 123 ------- 0 0.0 3.0 -1 41
- 1.057612 1 2 video 308 ------- 0 0.0 3.0 -1 43
r 1.058612 1 2 video 315 ------- 0 0.0 3.0 -1 42
+ 1.058612 2 3 video 315 ------- 0 0.0 3.0 -1 42
- 1.058612 2 3 video 315 ------- 0 0.0 3.0 -1 42
r 1.059864 2 3 video 315 ------- 0 0.0 3.0 -1 42
r 1.062462 1 2 video 308 ------- 0 0.0 3.0 -1 43
+ 1.062462 2 3 video 308 ------- 0 0.0 3.0 -1 43
- 1.062462 2 3 video 308 ------- 0 0.0 3.0 -1 43
r 1.063708 2 3 video 308 ------- 0 0.0 3.0 -1 43
+ 1.121995 0 1 video 263 ------- 0 0.0 3.0 -1 44
- 1.121995 0 1 video 263 ------- 0 0.0 3.0 -1 44
+ 1.122994 0 1 video 93 ------- 0 0.0 3.0 -1 45
- 1.122994 0 1 video 93 ------- 0 0.0 3.0 -1 45
+ 1.122994 0 1 video 91 ------- 0 0.0 3.0 -1 46
- 1.123068 0 1 video 91 ------- 0 0.0 3.0 -1 46
r 1.123205 0 1 video 263 ------- 0 0.0 3.0 -1 44
+ 1.123205 1 2 video 263 ------- 0 0.0 3.0 -1 44
- 1.123205 1 2 video 263 ------- 0 0.0 3.0 -1 44
r 1.124068 0 1 video 93 ------- 0 0.0 3.0 -1 45
+ 1.124068 1 2 video 93 ------- 0 0.0 3.0 -1 45
r 1.124141 0 1 video 91 ------- 0 0.0 3.0 -1 46
+ 1.124141 1 2 video 91 ------- 0 0.0 3.0 -1 46
- 1.126493 1 2 video 93 ------- 0 0.0 3.0 -1 45
r 1.127493 1 2 video 263 ------- 0 0.0 3.0 -1 44
+ 1.127493 2 3 video 263 ------- 0 0.0 3.0 -1 44
- 1.127493 2 3 video 263 ------- 0 0.0 3.0 -1 44
- 1.127655 1 2 video 91 ------- 0 0.0 3.0 -1 46
r 1.128655 1 2 video 93 ------- 0 0.0 3.0 -1 45
+ 1.128655 2 3 video 93 ------- 0 0.0 3.0 -1 45
- 1.128655 2 3 video 93 ------- 0 0.0 3.0 -1 45
r 1.128703 2 3 video 263 ------- 0 0.0 3.0 -1 44
r 1.12973 2 3 video 93 ------- 0 0.0 3.0 -1 45
r 1.129793 1 2 video 91 ------- 0 0.0 3.0 -1 46
+ 1.129793 2 3 video 91 ------- 0 0.0 3.0 -1 46
- 1.129793 2 3 video 91 ------- 0 0.0 3.0 -1 46
r 1.130866 2 3 video 91 ------- 0 0.0 3.0 -1 46
+ 1.221993 0 1 video 222 ------- 0 0.0 3.0 -1 47
- 1.221993 0 1 video 222 ------- 0 0.0 3.0 -1 47
+ 1.221993 0 1 video 87 ------- 0 0.0 3.0 -1 48
+ 1.221993 0 1 video 89 ------- 0 0.0 3.0 -1 49
- 1.222171 0 1 video 87 ------- 0 0.0 3.0 -1 48
- 1.22224 0 1 video 89 ------- 0 0.0 3.0 -1 49
r 1.223171 0 1 video 222 ------- 0 0.0 3.0 -1 47
+ 1.223171 1 2 video 222 ------- 0 0.0 3.0 -1 47
- 1.223171 1 2 video 222 ------- 0 0.0 3.0 -1 47
r 1.22324 0 1 video 87 ------- 0 0.0 3.0 -1 48
+ 1.22324 1 2 video 87 ------- 0 0.0 3.0 -1 48
r 1.223311 0 1 video 89 ------- 0 0.0 3.0 -1 49
+ 1.223311 1 2 video 89 ------- 0 0.0 3.0 -1 49
- 1.225946 1 2 video 87 ------- 0 0.0 3.0 -1 48
r 1.226946 1 2 video 222 ------- 0 0.0 3.0 -1 47
+ 1.226946 2 3 video 222 ------- 0 0.0 3.0 -1 47
- 1.226946 2 3 video 222 ------- 0 0.0 3.0 -1 47
- 1.227033 1 2 video 89 ------- 0 0.0 3.0 -1 49
r 1.228033 1 2 video 87 ------- 0 0.0 3.0 -1 48
+ 1.228033 2 3 video 87 ------- 0 0.0 3.0 -1 48
- 1.228033 2 3 video 87 ------- 0 0.0 3.0 -1 48
r 1.228123 2 3 video 222 ------- 0 0.0 3.0 -1 47
r 1.229103 2 3 video 87 ------- 0 0.0 3.0 -1 48
r 1.229146 1 2 video 89 ------- 0 0.0 3.0 -1 49
+ 1.229146 2 3 video 89 ------- 0 0.0 3.0 -1 49
- 1.229146 2 3 video 89 ------- 0 0.0 3.0 -1 49
r 1.230217 2 3 video 89 ------- 0 0.0 3.0 -1 49
+ 1.320992 0 1 video 232 ------- 0 0.0 3.0 -1 50
- 1.320992 0 1 video 232 ------- 0 0.0 3.0 -1 50
+ 1.320992 0 1 video 90 ------- 0 0.0 3.0 -1 51
+ 1.320992 0 1 video 86 ------- 0 0.0 3.0 -1 52
- 1.321178 0 1 video 90 ------- 0 0.0 3.0 -1 51
- 1.32125 0 1 video 86 ------- 0 0.0 3.0 -1 52
r 1.322178 0 1 video 232 ------- 0 0.0 3.0 -1 50
+ 1.322178 1 2 video 232 ------- 0 0.0 3.0 -1 50
- 1.322178 1 2 video 232 ------- 0 0.0 3.0 -1 50
r 1.32225 0 1 video 90 ------- 0 0.0 3.0 -1 51
+ 1.32225 1 2 video 90 ------- 0 0.0 3.0 -1 51
r 1.322318 0 1 video 86 ------- 0 0.0 3.0 -1 52
+ 1.322318 1 2 video 86 ------- 0 0.0 3.0 -1 52
- 1.325078 1 2 video 90 ------- 0 0.0 3.0 -1 51
r 1.326078 1 2 video 232 ------- 0 0.0 3.0 -1 50
+ 1.326078 2 3 video 232 ------- 0 0.0 3.0 -1 50
- 1.326078 2 3 video 232 ------- 0 0.0 3.0 -1 50
- 1.326203 1 2 video 86 ------- 0 0.0 3.0 -1 52
r 1.327203 1 2 video 90 ------- 0 0.0 3.0 -1 51
+ 1.327203 2 3 video 90 ------- 0 0.0 3.0 -1 51
- 1.327203 2 3 video 90 ------- 0 0.0 3.0 -1 51
r 1.327263 2 3 video 232 ------- 0 0.0 3.0 -1 50
r 1.328275 2 3 video 90 ------- 0 0.0 3.0 -1 51
r 1.328278 1 2 video 86 ------- 0 0.0 3.0 -1 52
+ 1.328278 2 3 video 86 ------- 0 0.0 3.0 -1 52
- 1.328278 2 3 video 86 ------- 0 0.0 3.0 -1 52
r 1.329346 2 3 video 86 ------- 0 0.0 3.0 -1 52
+ 1.418992 0 1 video 223 ------- 0 0.0 3.0 -1 53
- 1.418992 0 1 video 223 ------- 0 0.0 3.0 -1 53
+ 1.418992 0 1 video 90 ------- 0 0.0 3.0 -1 54
+ 1.418992 0 1 video 89 ------- 0 0.0 3.0 -1 55
- 1.41917 0 1 video 90 ------- 0 0.0 3.0 -1 54
- 1.419242 0 1 video 89 ------- 0 0.0 3.0 -1 55
r 1.42017 0 1 video 223 ------- 0 0.0 3.0 -1 53
+ 1.42017 1 2 video 223 ------- 0 0.0 3.0 -1 53
- 1.42017 1 2 video 223 ------- 0 0.0 3.0 -1 53
r 1.420242 0 1 video 90 ------- 0 0.0 3.0 -1 54
+ 1.420242 1 2 video 90 ------- 0 0.0 3.0 -1 54
r 1.420314 0 1 video 89 ------- 0 0.0 3.0 -1 55
+ 1.420314 1 2 video 89 ------- 0 0.0 3.0 -1 55
- 1.422958 1 2 video 90 ------- 0 0.0 3.0 -1 54
r 1.423958 1 2 video 223 ------- 0 0.0 3.0 -1 53
+ 1.423958 2 3 video 223 ------- 0 0.0 3.0 -1 53
- 1.423958 2 3 video 223 ------- 0 0.0 3.0 -1 53
- 1.424083 1 2 video 89 ------- 0 0.0 3.0 -1 55
r 1.425083 1 2 video 90 ------- 0 0.0 3.0 -1 54
+ 1.425083 2 3 video 90 ------- 0 0.0 3.0 -1 54
- 1.425083 2 3 video 90 ------- 0 0.0 3.0 -1 54
r 1.425136 2 3 video 223 ------- 0 0.0 3.0 -1 53
r 1.426155 2 3 video 90 ------- 0 0.0 3.0 -1 54
r 1.426195 1 2 video 89 ------- 0 0.0 3.0 -1 55
+ 1.426195 2 3 video 89 ------- 0 0.0 3.0 -1 55
- 1.426195 2 3 video 89 ------- 0 0.0 3.0 -1 55
r 1.427267 2 3 video 89 ------- 0 0.0 3.0 -1 55
+ 1.517991 0 1 video 296 ------- 0 0.0 3.0 -1 56
- 1.517991 0 1 video 296 ------- 0 0.0 3.0 -1 56
+ 1.517991 0 1 video 102 ------- 0 0.0 3.0 -1 57
+ 1.517991 0 1 video 103 ------- 0 0.0 3.0 -1 58
- 1.518228 0 1 video 102 ------- 0 0.0 3.0 -1 57
- 1.518309 0 1 video 103 ------- 0 0.0 3.0 -1 58
r 1.519228 0 1 video 296 ------- 0 0.0 3.0 -1 56
+ 1.519228 1 2 video 296 ------- 0 0.0 3.0 -1 56
- 1.519228 1 2 video 296 ------- 0 0.0 3.0 -1 56
r 1.519309 0 1 video 102 ------- 0 0.0 3.0 -1 57
+ 1.519309 1 2 video 102 ------- 0 0.0 3.0 -1 57
r 1.519392 0 1 video 103 ------- 0 0.0 3.0 -1 58
+ 1.519392 1 2 video 103 ------- 0 0.0 3.0 -1 58
- 1.522928 1 2 video 102 ------- 0 0.0 3.0 -1 57
r 1.523928 1 2 video 296 ------- 0 0.0 3.0 -1 56
+ 1.523928 2 3 video 296 ------- 0 0.0 3.0 -1 56
- 1.523928 2 3 video 296 ------- 0 0.0 3.0 -1 56
- 1.524203 1 2 video 103 ------- 0 0.0 3.0 -1 58
r 1.525165 2 3 video 296 ------- 0 0.0 3.0 -1 56
r 1.525203 1 2 video 102 ------- 0 0.0 3.0 -1 57
+ 1.525203 2 3 video 102 ------- 0 0.0 3.0 -1 57
- 1.525203 2 3 video 102 ------- 0 0.0 3.0 -1 57
r 1.526284 2 3 video 102 ------- 0 0.0 3.0 -1 57
r 1.52649 1 2 video 103 ------- 0 0.0 3.0 -1 58
+ 1.52649 2 3 video 103 ------- 0 0.0 3.0 -1 58
- 1.52649 2 3 video 103 ------- 0 0.0 3.0 -1 58
r 1.527573 2 3 video 103 ------- 0 0.0 3.0 -1 58
+ 1.61699 0 1 video 321 ------- 0 0.0 3.0 -1 59
- 1.61699 0 1 video 321 ------- 0 0.0 3.0 -1 59
+ 1.61699 0 1 video 106 ------- 0 0.0 3.0 -1 60
+ 1.61699 0 1 video 114 ------- 0 0.0 3.0 -1 61
- 1.617247 0 1 video 106 ------- 0 0.0 3.0 -1 60
- 1.617332 0 1 video 114 ------- 0 0.0 3.0 -1 61
r 1.618247 0 1 video 321 ------- 0 0.0 3.0 -1 59
+ 1.618247 1 2 video 321 ------- 0 0.0 3.0 -1 59
- 1.618247 1 2 video 321 ------- 0 0.0 3.0 -1 59
r 1.618332 0 1 video 106 ------- 0 0.0 3.0 -1 60
+ 1.618332 1 2 video 106 ------- 0 0.0 3.0 -1 60
r 1.618423 0 1 video 114 ------- 0 0.0 3.0 -1 61
+ 1.618423 1 2 video 114 ------- 0 0.0 3.0 -1 61
- 1.622259 1 2 video 106 ------- 0 0.0 3.0 -1 60
r 1.623259 1 2 video 321 ------- 0 0.0 3.0 -1 59
+ 1.623259 2 3 video 321 ------- 0 0.0 3.0 -1 59
- 1.623259 2 3 video 321 ------- 0 0.0 3.0 -1 59
- 1.623584 1 2 video 114 ------- 0 0.0 3.0 -1 61
r 1.624516 2 3 video 321 ------- 0 0.0 3.0 -1 59
r 1.624584 1 2 video 106 ------- 0 0.0 3.0 -1 60
+ 1.624584 2 3 video 106 ------- 0 0.0 3.0 -1 60
- 1.624584 2 3 video 106 ------- 0 0.0 3.0 -1 60
r 1.625669 2 3 video 106 ------- 0 0.0 3.0 -1 60
r 1.626009 1 2 video 114 ------- 0 0.0 3.0 -1 61
+ 1.626009 2 3 video 114 ------- 0 0.0 3.0 -1 61
- 1.626009 2 3 video 114 ------- 0 0.0 3.0 -1 61
r 1.627101 2 3 video 114 ------- 0 0.0 3.0 -1 61
+ 1.71699 0 1 video 369 ------- 0 0.0 3.0 -1 62
- 1.71699 0 1 video 369 ------- 0 0.0 3.0 -1 62
+ 1.71699 0 1 video 120 ------- 0 0.0 3.0 -1 63
+ 1.71699 0 1 video 111 ------- 0 0.0 3.0 -1 64
- 1.717285 0 1 video 120 ------- 0 0.0 3.0 -1 63
- 1.717381 0 1 video 111 ------- 0 0.0 3.0 -1 64
r 1.718285 0 1 video 369 ------- 0 0.0 3.0 -1 62
+ 1.718285 1 2 video 369 ------- 0 0.0 3.0 -1 62
- 1.718285 1 2 video 369 ------- 0 0.0 3.0 -1 62
r 1.718381 0 1 video 120 ------- 0 0.0 3.0 -1 63
+ 1.718381 1 2 video 120 ------- 0 0.0 3.0 -1 63
r 1.71847 0 1 video 111 ------- 0 0.0 3.0 -1 64
+ 1.71847 1 2 video 111 ------- 0 0.0 3.0 -1 64
- 1.722898 1 2 video 120 ------- 0 0.0 3.0 -1 63
r 1.723898 1 2 video 369 ------- 0 0.0 3.0 -1 62
+ 1.723898 2 3 video 369 ------- 0 0.0 3.0 -1 62
- 1.723898 2 3 video 369 ------- 0 0.0 3.0 -1 62
- 1.724398 1 2 video 111 ------- 0 0.0 3.0 -1 64
r 1.725193 2 3 video 369 ------- 0 0.0 3.0 -1 62
r 1.725398 1 2 video 120 ------- 0 0.0 3.0 -1 63
+ 1.725398 2 3 video 120 ------- 0 0.0 3.0 -1 63
- 1.725398 2 3 video 120 ------- 0 0.0 3.0 -1 63
r 1.726494 2 3 video 120 ------- 0 0.0 3.0 -1 63
r 1.726785 1 2 video 111 ------- 0 0.0 3.0 -1 64
+ 1.726785 2 3 video 111 ------- 0 0.0 3.0 -1 64
- 1.726785 2 3 video 111 ------- 0 0.0 3.0 -1 64
r 1.727874 2 3 video 111 ------- 0 0.0 3.0 -1 64
+ 1.814989 0 1 video 348 ------- 0 0.0 3.0 -1 65
- 1.814989 0 1 video 348 ------- 0 0.0 3.0 -1 65
+ 1.814989 0 1 video 106 ------- 0 0.0 3.0 -1 66
+ 1.814989 0 1 video 112 ------- 0 0.0 3.0 -1 67
- 1.815267 0 1 video 106 ------- 0 0.0 3.0 -1 66
- 1.815352 0 1 video 112 ------- 0 0.0 3.0 -1 67
r 1.816267 0 1 video 348 ------- 0 0.0 3.0 -1 65
+ 1.816267 1 2 video 348 ------- 0 0.0 3.0 -1 65
- 1.816267 1 2 video 348 ------- 0 0.0 3.0 -1 65
r 1.816352 0 1 video 106 ------- 0 0.0 3.0 -1 66
+ 1.816352 1 2 video 106 ------- 0 0.0 3.0 -1 66
r 1.816442 0 1 video 112 ------- 0 0.0 3.0 -1 67
+ 1.816442 1 2 video 112 ------- 0 0.0 3.0 -1 67
- 1.820617 1 2 video 106 ------- 0 0.0 3.0 -1 66
r 1.821617 1 2 video 348 ------- 0 0.0 3.0 -1 65
+ 1.821617 2 3 video 348 ------- 0 0.0 3.0 -1 65
- 1.821617 2 3 video 348 ------- 0 0.0 3.0 -1 65
- 1.821942 1 2 video 112 ------- 0 0.0 3.0 -1 67
r 1.822896 2 3 video 348 ------- 0 0.0 3.0 -1 65
r 1.822942 1 2 video 106 ------- 0 0.0 3.0 -1 66
+ 1.822942 2 3 video 106 ------- 0 0.0 3.0 -1 66
- 1.822942 2 3 video 106 ------- 0 0.0 3.0 -1 66
r 1.824027 2 3 video 106 ------- 0 0.0 3.0 -1 66
r 1.824342 1 2 video 112 ------- 0 0.0 3.0 -1 67
+ 1.824342 2 3 video 112 ------- 0 0.0 3.0 -1 67
- 1.824342 2 3 video 112 ------- 0 0.0 3.0 -1 67
r 1.825432 2 3 video 112 ------- 0 0.0 3.0 -1 67
+ 1.914989 0 1 video 319 ------- 0 0.0 3.0 -1 68
- 1.914989 0 1 video 319 ------- 0 0.0 3.0 -1 68
+ 1.914989 0 1 video 112 ------- 0 0.0 3.0 -1 69
+ 1.914989 0 1 video 119 ------- 0 0.0 3.0 -1 70